id,name,SMILES,density_g_ml,LHV_MJ_kg,RON,MON,cetane,PMI,TSI,OC_ratio,ring_count,vapor_pressure_kPa,T10_C,T50_C,T90_C,cost_eur_L,max_vol_frac,flags
gdb_001,2-Methyl-2-butene,CC(C)=CC,0.65,44.5,95,85,0,8,8,0,0,55,35,85,155,2.5,0.05,
gdb_002,Cyclopentane,C1CCCC1,0.75,44.8,85,75,0,12,12,0,1,45,50,95,175,3.0,0.03,
gdb_003,2-3-Dimethylbutane,CC(C)C(C)C,0.67,44.2,92,88,0,10,10,0,0,50,40,90,160,2.8,0.04,
gdb_004,1-Hexene,CCCCC=C,0.67,44.0,90,82,0,9,9,0,0,48,42,88,165,2.7,0.05,
gdb_005,Cyclohexane,C1CCCCC1,0.78,43.5,83,78,0,15,15,0,1,40,55,100,180,3.2,0.03,